data_71345-ICSD
#©2014 by Fachinformationszentrum Karlsruhe, and the U.S. Secretary of 
#Commerce on behalf of the United States.  All rights reserved.
_database_code_ICSD                71345
_audit_creation_date               1993/01/06
_audit_update_record               2008/02/01
_chemical_name_systematic          'Iron Sulfate(VI) Hydrate'
_chemical_formula_structural       'Fe (S O4) (H2 O)'
_chemical_formula_sum              'H2 Fe1 O5 S1'
_chemical_name_mineral             Szomolnokite
_publ_section_title
;
The crystal structures of kieserite-type compounds. I. Crystal 
structures of Me(II) S O4 * H2 O (Me= Mn, Fe, Co, Ni, Zn)
;
loop_
_citation_id
_citation_journal_abbrev
_citation_year
_citation_journal_volume
_citation_journal_issue
_citation_page_first
_citation_page_last
_citation_journal_id_ASTM
primary 'Neues Jahrbuch fuer Mineralogie. Monatshefte (Band=Jahr) (1950-)'
 1991 1991 7 296 306 NJMMAW
_publ_author_name                  'Wildner, M.;Giester, G.'
_cell_length_a                     7.078(3)
_cell_length_b                     7.549(3)
_cell_length_c                     7.773(3)
_cell_angle_alpha                  90.
_cell_angle_beta                   118.65(2)
_cell_angle_gamma                  90.
_cell_volume                       364.48
_cell_formula_units_Z              4
_symmetry_space_group_name_H-M     'C 1 2/c 1'
_symmetry_Int_Tables_number        15
_refine_ls_R_factor_all            0.051
loop_
_symmetry_equiv_pos_site_id
_symmetry_equiv_pos_as_xyz
  1	'x, -y, z+1/2'
  2	'-x, -y, -z'
  3	'-x, y, -z+1/2'
  4	'x, y, z'
  5	'x+1/2, -y+1/2, z+1/2'
  6	'-x+1/2, -y+1/2, -z'
  7	'-x+1/2, y+1/2, -z+1/2'
  8	'x+1/2, y+1/2, z'
loop_
_atom_type_symbol
_atom_type_oxidation_number
Fe2+	2
H1+	1
O2-	-2
S6+	6
loop_
_atom_site_label
_atom_site_type_symbol
_atom_site_symmetry_multiplicity
_atom_site_Wyckoff_symbol
_atom_site_fract_x
_atom_site_fract_y
_atom_site_fract_z
_atom_site_occupancy
_atom_site_attached_hydrogens
_atom_site_U_iso_or_equiv
Fe1 Fe2+ 4 b 0 0.5 0 1. 0 0 
S1 S6+ 4 e 0 0.15307(9) 0.25 1. 0 0 
O1 O2- 8 f 0.1697(2) 0.0429(2) 0.3985(3) 1. 0 0 
O2 O2- 8 f 0.0956(2) 0.2683(2) 0.1560(2) 1. 0 0 
O3 O2- 4 e 0 0.6444(3) 0.25 1. 2 0 
H1 H1+ 8 f 0.108(6) 0.709(7) 0.315(7) 1. 0 0.088(15) 

loop_
_atom_site_aniso_label
_atom_site_aniso_type_symbol
_atom_site_aniso_U_11
_atom_site_aniso_U_22
_atom_site_aniso_U_33
_atom_site_aniso_U_12
_atom_site_aniso_U_13
_atom_site_aniso_U_23
Fe1 Fe2+ 0.0121(2) 0.0164(3) 0.0205(3) 0.0001(1) 0.0073(2) 0.0011(1)
S1 S6+ 0.0101(2) 0.0145(4) 0.0205(4) 0 0.0067(2) 0
O1 O2- 0.0137(5) 0.0232(8) 0.0283(9) 0.0042(6) 0.0082(5) 0.0079(7)
O2 O2- 0.0180(5) 0.0200(7) 0.0278(8) 0.0029(6) 0.0133(5) 0.0063(7)
O3 O2- 0.0160(7) 0.0206(12) 0.0254(12) 0 0.0097(7) 0
#End of data_71345-ICSD


